<?xml version="1.0"?>

<!-- generated on Thu Nov 13 13:21:11 2014 by SUMO sumo Version 0.16.0
<?xml version="1.0" encoding="UTF-8"?>

<configuration xmlns:xsi="http://www.w3.org/2001/XMLSchema-instance" xsi:noNamespaceSchemaLocation="http://sumo.sf.net/xsd/sumoConfiguration.xsd">

    <input>
        <net-file value="simple_grid.net.xml"/>
        <route-files value="simple_route.xml"/>
    </input>

    <output>
        <fcd-output value="gridTrace.fcd.xml"/>
    </output>

    <time>
        <begin value="0"/>
        <end value="1000"/>
    </time>

    <gui_only>
        <gui-settings-file value="settings.xml"/>
    </gui_only>

</configuration>
-->

<fcd-export>
    <timestep time="0.00">
        <vehicle id="flow1.0" x="501.65" y="9.85" angle="180.00" type="type0" speed="0.00"/>
    </timestep>
    <timestep time="1.00">
        <vehicle id="flow1.0" x="501.65" y="10.41" angle="180.00" type="type0" speed="0.56"/>
    </timestep>
    <timestep time="2.00">
        <vehicle id="flow1.0" x="501.65" y="11.76" angle="180.00" type="type0" speed="1.35"/>
    </timestep>
    <timestep time="3.00">
        <vehicle id="flow1.0" x="501.65" y="13.61" angle="180.00" type="type0" speed="1.85"/>
    </timestep>
    <timestep time="4.00">
        <vehicle id="flow1.0" x="501.65" y="16.16" angle="180.00" type="type0" speed="2.55"/>
    </timestep>
    <timestep time="5.00">
        <vehicle id="flow1.0" x="501.65" y="19.29" angle="180.00" type="type0" speed="3.13"/>
        <vehicle id="flow2.0" x="501.65" y="9.85" angle="180.00" type="type0" speed="0.00"/>
    </timestep>
    <timestep time="6.00">
        <vehicle id="flow1.0" x="501.65" y="23.22" angle="180.00" type="type0" speed="3.93"/>
        <vehicle id="flow2.0" x="501.65" y="10.35" angle="180.00" type="type0" speed="0.50"/>
    </timestep>
    <timestep time="7.00">
        <vehicle id="flow1.0" x="501.65" y="27.77" angle="180.00" type="type0" speed="4.54"/>
        <vehicle id="flow2.0" x="501.65" y="11.38" angle="180.00" type="type0" speed="1.03"/>
    </timestep>
    <timestep time="8.00">
        <vehicle id="flow1.0" x="501.65" y="32.88" angle="180.00" type="type0" speed="5.12"/>
        <vehicle id="flow2.0" x="501.65" y="13.04" angle="180.00" type="type0" speed="1.65"/>
    </timestep>
    <timestep time="9.00">
        <vehicle id="flow1.0" x="501.65" y="38.77" angle="180.00" type="type0" speed="5.89"/>
        <vehicle id="flow2.0" x="501.65" y="15.38" angle="180.00" type="type0" speed="2.35"/>
    </timestep>
    <timestep time="10.00">
        <vehicle id="flow1.0" x="501.65" y="45.34" angle="180.00" type="type0" speed="6.56"/>
        <vehicle id="flow2.0" x="501.65" y="18.18" angle="180.00" type="type0" speed="2.80"/>
    </timestep>
    <timestep time="11.00">
        <vehicle id="flow1.0" x="501.65" y="52.68" angle="180.00" type="type0" speed="7.35"/>
        <vehicle id="flow2.0" x="501.65" y="21.50" angle="180.00" type="type0" speed="3.32"/>
    </timestep>
    <timestep time="12.00">
        <vehicle id="flow1.0" x="501.65" y="60.71" angle="180.00" type="type0" speed="8.02"/>
        <vehicle id="flow1.1" x="990.15" y="501.65" angle="-90.00" type="type0" speed="0.00"/>
        <vehicle id="flow2.0" x="501.65" y="25.42" angle="180.00" type="type0" speed="3.92"/>
    </timestep>
    <timestep time="13.00">
        <vehicle id="flow1.0" x="501.65" y="69.17" angle="180.00" type="type0" speed="8.47"/>
        <vehicle id="flow1.1" x="989.51" y="501.65" angle="-90.00" type="type0" speed="0.64"/>
        <vehicle id="flow2.0" x="501.65" y="29.81" angle="180.00" type="type0" speed="4.39"/>
    </timestep>
    <timestep time="14.00">
        <vehicle id="flow1.0" x="501.65" y="78.35" angle="180.00" type="type0" speed="9.17"/>
        <vehicle id="flow1.1" x="988.08" y="501.65" angle="-90.00" type="type0" speed="1.43"/>
        <vehicle id="flow2.0" x="501.65" y="34.78" angle="180.00" type="type0" speed="4.97"/>
    </timestep>
    <timestep time="15.00">
        <vehicle id="flow1.0" x="501.65" y="87.85" angle="180.00" type="type0" speed="9.50"/>
        <vehicle id="flow1.1" x="985.92" y="501.65" angle="-90.00" type="type0" speed="2.16"/>
        <vehicle id="flow2.0" x="501.65" y="40.42" angle="180.00" type="type0" speed="5.65"/>
    </timestep>
    <timestep time="16.00">
        <vehicle id="flow1.0" x="501.65" y="97.64" angle="180.00" type="type0" speed="9.79"/>
        <vehicle id="flow1.1" x="983.22" y="501.65" angle="-90.00" type="type0" speed="2.69"/>
        <vehicle id="flow2.0" x="501.65" y="46.49" angle="180.00" type="type0" speed="6.07"/>
    </timestep>
    <timestep time="17.00">
        <vehicle id="flow1.0" x="501.65" y="107.39" angle="180.00" type="type0" speed="9.75"/>
        <vehicle id="flow1.1" x="979.78" y="501.65" angle="-90.00" type="type0" speed="3.44"/>
        <vehicle id="flow2.0" x="501.65" y="53.22" angle="180.00" type="type0" speed="6.73"/>
        <vehicle id="flow2.1" x="990.15" y="501.65" angle="-90.00" type="type0" speed="0.00"/>
    </timestep>
    <timestep time="18.00">
        <vehicle id="flow1.0" x="501.65" y="116.81" angle="180.00" type="type0" speed="9.42"/>
        <vehicle id="flow1.1" x="975.63" y="501.65" angle="-90.00" type="type0" speed="4.15"/>
        <vehicle id="flow2.0" x="501.65" y="60.59" angle="180.00" type="type0" speed="7.37"/>
        <vehicle id="flow2.1" x="989.46" y="501.65" angle="-90.00" type="type0" speed="0.69"/>
    </timestep>
    <timestep time="19.00">
        <vehicle id="flow1.0" x="501.65" y="126.39" angle="180.00" type="type0" speed="9.58"/>
        <vehicle id="flow1.1" x="971.01" y="501.65" angle="-90.00" type="type0" speed="4.63"/>
        <vehicle id="flow2.0" x="501.65" y="68.70" angle="180.00" type="type0" speed="8.10"/>
        <vehicle id="flow2.1" x="988.06" y="501.65" angle="-90.00" type="type0" speed="1.40"/>
    </timestep>
    <timestep time="20.00">
        <vehicle id="flow1.0" x="501.65" y="135.92" angle="180.00" type="type0" speed="9.54"/>
        <vehicle id="flow1.1" x="965.82" y="501.65" angle="-90.00" type="type0" speed="5.19"/>
        <vehicle id="flow2.0" x="501.65" y="77.56" angle="180.00" type="type0" speed="8.87"/>
        <vehicle id="flow2.1" x="986.15" y="501.65" angle="-90.00" type="type0" speed="1.91"/>
    </timestep>
    <timestep time="21.00">
        <vehicle id="flow1.0" x="501.65" y="145.36" angle="180.00" type="type0" speed="9.43"/>
        <vehicle id="flow1.1" x="959.95" y="501.65" angle="-90.00" type="type0" speed="5.87"/>
        <vehicle id="flow2.0" x="501.65" y="86.95" angle="180.00" type="type0" speed="9.39"/>
        <vehicle id="flow2.1" x="983.82" y="501.65" angle="-90.00" type="type0" speed="2.33"/>
    </timestep>
    <timestep time="22.00">
        <vehicle id="flow1.0" x="501.65" y="154.93" angle="180.00" type="type0" speed="9.57"/>
        <vehicle id="flow1.1" x="953.67" y="501.65" angle="-90.00" type="type0" speed="6.28"/>
        <vehicle id="flow2.0" x="501.65" y="96.95" angle="180.00" type="type0" speed="9.99"/>
        <vehicle id="flow2.1" x="980.76" y="501.65" angle="-90.00" type="type0" speed="3.06"/>
    </timestep>
    <timestep time="23.00">
        <vehicle id="flow1.0" x="501.65" y="164.48" angle="180.00" type="type0" speed="9.55"/>
        <vehicle id="flow1.1" x="946.60" y="501.65" angle="-90.00" type="type0" speed="7.07"/>
        <vehicle id="flow2.0" x="501.65" y="107.67" angle="180.00" type="type0" speed="10.72"/>
        <vehicle id="flow2.1" x="976.96" y="501.65" angle="-90.00" type="type0" speed="3.80"/>
    </timestep>
    <timestep time="24.00">
        <vehicle id="flow1.0" x="501.65" y="174.06" angle="180.00" type="type0" speed="9.59"/>
        <vehicle id="flow1.1" x="938.75" y="501.65" angle="-90.00" type="type0" speed="7.85"/>
        <vehicle id="flow1.2" x="9.85" y="498.35" angle="90.00" type="type0" speed="0.00"/>
        <vehicle id="flow2.0" x="501.65" y="119.07" angle="180.00" type="type0" speed="11.41"/>
        <vehicle id="flow2.1" x="972.73" y="501.65" angle="-90.00" type="type0" speed="4.23"/>
        <vehicle id="flow2.2" x="990.15" y="501.65" angle="-90.00" type="type0" speed="0.00"/>
    </timestep>
    <timestep time="25.00">
        <vehicle id="flow1.0" x="501.65" y="183.73" angle="180.00" type="type0" speed="9.67"/>
        <vehicle id="flow1.1" x="930.19" y="501.65" angle="-90.00" type="type0" speed="8.56"/>
        <vehicle id="flow1.2" x="10.58" y="498.35" angle="90.00" type="type0" speed="0.73"/>
        <vehicle id="flow2.0" x="501.65" y="131.16" angle="180.00" type="type0" speed="12.08"/>
        <vehicle id="flow2.1" x="967.93" y="501.65" angle="-90.00" type="type0" speed="4.80"/>
        <vehicle id="flow2.2" x="989.38" y="501.65" angle="-90.00" type="type0" speed="0.77"/>
    </timestep>
    <timestep time="26.00">
        <vehicle id="flow1.0" x="501.65" y="193.50" angle="180.00" type="type0" speed="9.77"/>
        <vehicle id="flow1.1" x="920.94" y="501.65" angle="-90.00" type="type0" speed="9.25"/>
        <vehicle id="flow1.2" x="12.02" y="498.35" angle="90.00" type="type0" speed="1.44"/>
        <vehicle id="flow2.0" x="501.65" y="144.02" angle="180.00" type="type0" speed="12.86"/>
        <vehicle id="flow2.1" x="962.47" y="501.65" angle="-90.00" type="type0" speed="5.46"/>
        <vehicle id="flow2.2" x="988.11" y="501.65" angle="-90.00" type="type0" speed="1.28"/>
    </timestep>
    <timestep time="27.00">
        <vehicle id="flow1.0" x="501.65" y="203.14" angle="180.00" type="type0" speed="9.64"/>
        <vehicle id="flow1.1" x="911.10" y="501.65" angle="-90.00" type="type0" speed="9.84"/>
        <vehicle id="flow1.2" x="13.93" y="498.35" angle="90.00" type="type0" speed="1.91"/>
        <vehicle id="flow2.0" x="501.65" y="157.41" angle="180.00" type="type0" speed="13.39"/>
        <vehicle id="flow2.1" x="956.36" y="501.65" angle="-90.00" type="type0" speed="6.10"/>
        <vehicle id="flow2.2" x="986.28" y="501.65" angle="-90.00" type="type0" speed="1.83"/>
    </timestep>
    <timestep time="28.00">
        <vehicle id="flow1.0" x="501.65" y="212.78" angle="180.00" type="type0" speed="9.64"/>
        <vehicle id="flow1.1" x="900.47" y="501.65" angle="-90.00" type="type0" speed="10.63"/>
        <vehicle id="flow1.2" x="16.52" y="498.35" angle="90.00" type="type0" speed="2.59"/>
        <vehicle id="flow2.0" x="501.65" y="171.19" angle="180.00" type="type0" speed="13.77"/>
        <vehicle id="flow2.1" x="949.85" y="501.65" angle="-90.00" type="type0" speed="6.51"/>
        <vehicle id="flow2.2" x="983.79" y="501.65" angle="-90.00" type="type0" speed="2.48"/>
    </timestep>
    <timestep time="29.00">
        <vehicle id="flow1.0" x="501.65" y="222.23" angle="180.00" type="type0" speed="9.45"/>
        <vehicle id="flow1.1" x="889.24" y="501.65" angle="-90.00" type="type0" speed="11.23"/>
        <vehicle id="flow1.2" x="19.75" y="498.35" angle="90.00" type="type0" speed="3.22"/>
        <vehicle id="flow2.0" x="501.65" y="185.15" angle="180.00" type="type0" speed="13.97"/>
        <vehicle id="flow2.1" x="942.91" y="501.65" angle="-90.00" type="type0" speed="6.94"/>
        <vehicle id="flow2.2" x="980.76" y="501.65" angle="-90.00" type="type0" speed="3.03"/>
    </timestep>
    <timestep time="30.00">
        <vehicle id="flow1.0" x="501.65" y="231.86" angle="180.00" type="type0" speed="9.62"/>
        <vehicle id="flow1.1" x="877.59" y="501.65" angle="-90.00" type="type0" speed="11.65"/>
        <vehicle id="flow1.2" x="23.65" y="498.35" angle="90.00" type="type0" speed="3.90"/>
        <vehicle id="flow2.0" x="501.65" y="198.88" angle="180.00" type="type0" speed="13.72"/>
        <vehicle id="flow2.1" x="935.39" y="501.65" angle="-90.00" type="type0" speed="7.51"/>
        <vehicle id="flow2.2" x="977.27" y="501.65" angle="-90.00" type="type0" speed="3.49"/>
    </timestep>
    <timestep time="31.00">
        <vehicle id="flow1.0" x="501.65" y="241.52" angle="180.00" type="type0" speed="9.67"/>
        <vehicle id="flow1.1" x="865.33" y="501.65" angle="-90.00" type="type0" speed="12.26"/>
        <vehicle id="flow1.2" x="28.09" y="498.35" angle="90.00" type="type0" speed="4.44"/>
        <vehicle id="flow2.0" x="501.65" y="212.72" angle="180.00" type="type0" speed="13.84"/>
        <vehicle id="flow2.1" x="927.12" y="501.65" angle="-90.00" type="type0" speed="8.27"/>
        <vehicle id="flow2.2" x="973.27" y="501.65" angle="-90.00" type="type0" speed="4.01"/>
    </timestep>
    <timestep time="32.00">
        <vehicle id="flow1.0" x="501.65" y="251.22" angle="180.00" type="type0" speed="9.69"/>
        <vehicle id="flow1.1" x="852.56" y="501.65" angle="-90.00" type="type0" speed="12.77"/>
        <vehicle id="flow1.2" x="33.27" y="498.35" angle="90.00" type="type0" speed="5.18"/>
        <vehicle id="flow2.0" x="501.65" y="225.72" angle="180.00" type="type0" speed="13.00"/>
        <vehicle id="flow2.1" x="918.09" y="501.65" angle="-90.00" type="type0" speed="9.02"/>
        <vehicle id="flow2.2" x="968.75" y="501.65" angle="-90.00" type="type0" speed="4.52"/>
    </timestep>
    <timestep time="33.00">
        <vehicle id="flow1.0" x="501.65" y="260.87" angle="180.00" type="type0" speed="9.66"/>
        <vehicle id="flow1.1" x="839.14" y="501.65" angle="-90.00" type="type0" speed="13.42"/>
        <vehicle id="flow1.2" x="38.98" y="498.35" angle="90.00" type="type0" speed="5.71"/>
        <vehicle id="flow2.0" x="501.65" y="237.71" angle="180.00" type="type0" speed="11.99"/>
        <vehicle id="flow2.1" x="908.67" y="501.65" angle="-90.00" type="type0" speed="9.42"/>
        <vehicle id="flow2.2" x="963.62" y="501.65" angle="-90.00" type="type0" speed="5.13"/>
    </timestep>
    <timestep time="34.00">
        <vehicle id="flow1.0" x="501.65" y="270.34" angle="180.00" type="type0" speed="9.47"/>
        <vehicle id="flow1.1" x="825.06" y="501.65" angle="-90.00" type="type0" speed="14.08"/>
        <vehicle id="flow1.2" x="45.23" y="498.35" angle="90.00" type="type0" speed="6.25"/>
        <vehicle id="flow2.0" x="501.65" y="248.90" angle="180.00" type="type0" speed="11.19"/>
        <vehicle id="flow2.1" x="899.60" y="501.65" angle="-90.00" type="type0" speed="9.08"/>
        <vehicle id="flow2.2" x="957.75" y="501.65" angle="-90.00" type="type0" speed="5.87"/>
    </timestep>
    <timestep time="35.00">
        <vehicle id="flow1.0" x="501.65" y="279.91" angle="180.00" type="type0" speed="9.57"/>
        <vehicle id="flow1.1" x="810.45" y="501.65" angle="-90.00" type="type0" speed="14.61"/>
        <vehicle id="flow1.2" x="52.04" y="498.35" angle="90.00" type="type0" speed="6.81"/>
        <vehicle id="flow2.0" x="501.65" y="259.63" angle="180.00" type="type0" speed="10.73"/>
        <vehicle id="flow2.1" x="890.31" y="501.65" angle="-90.00" type="type0" speed="9.29"/>
        <vehicle id="flow2.2" x="951.20" y="501.65" angle="-90.00" type="type0" speed="6.56"/>
    </timestep>
    <timestep time="36.00">
        <vehicle id="flow1.0" x="501.65" y="289.67" angle="180.00" type="type0" speed="9.76"/>
        <vehicle id="flow1.1" x="795.37" y="501.65" angle="-90.00" type="type0" speed="15.08"/>
        <vehicle id="flow1.2" x="59.27" y="498.35" angle="90.00" type="type0" speed="7.23"/>
        <vehicle id="flow1.3" x="9.85" y="498.35" angle="90.00" type="type0" speed="0.00"/>
        <vehicle id="flow2.0" x="501.65" y="269.96" angle="180.00" type="type0" speed="10.33"/>
        <vehicle id="flow2.1" x="881.13" y="501.65" angle="-90.00" type="type0" speed="9.18"/>
        <vehicle id="flow2.2" x="944.18" y="501.65" angle="-90.00" type="type0" speed="7.01"/>
        <vehicle id="flow2.3" x="501.65" y="9.85" angle="180.00" type="type0" speed="0.00"/>
    </timestep>
    <timestep time="37.00">
        <vehicle id="flow1.0" x="501.65" y="299.28" angle="180.00" type="type0" speed="9.61"/>
        <vehicle id="flow1.1" x="779.63" y="501.65" angle="-90.00" type="type0" speed="15.74"/>
        <vehicle id="flow1.2" x="67.11" y="498.35" angle="90.00" type="type0" speed="7.84"/>
        <vehicle id="flow1.3" x="10.33" y="498.35" angle="90.00" type="type0" speed="0.48"/>
        <vehicle id="flow2.0" x="501.65" y="280.08" angle="180.00" type="type0" speed="10.12"/>
        <vehicle id="flow2.1" x="871.76" y="501.65" angle="-90.00" type="type0" speed="9.37"/>
        <vehicle id="flow2.2" x="936.73" y="501.65" angle="-90.00" type="type0" speed="7.45"/>
        <vehicle id="flow2.3" x="501.65" y="10.26" angle="180.00" type="type0" speed="0.41"/>
    </timestep>
    <timestep time="38.00">
        <vehicle id="flow1.0" x="501.65" y="308.82" angle="180.00" type="type0" speed="9.54"/>
        <vehicle id="flow1.1" x="763.29" y="501.65" angle="-90.00" type="type0" speed="16.35"/>
        <vehicle id="flow1.2" x="75.59" y="498.35" angle="90.00" type="type0" speed="8.48"/>
        <vehicle id="flow1.3" x="11.25" y="498.35" angle="90.00" type="type0" speed="0.92"/>
        <vehicle id="flow2.0" x="501.65" y="290.28" angle="180.00" type="type0" speed="10.20"/>
        <vehicle id="flow2.1" x="862.32" y="501.65" angle="-90.00" type="type0" speed="9.43"/>
        <vehicle id="flow2.2" x="928.84" y="501.65" angle="-90.00" type="type0" speed="7.88"/>
        <vehicle id="flow2.3" x="501.65" y="11.33" angle="180.00" type="type0" speed="1.07"/>
    </timestep>
    <timestep time="39.00">
        <vehicle id="flow1.0" x="501.65" y="318.30" angle="180.00" type="type0" speed="9.48"/>
        <vehicle id="flow1.1" x="746.33" y="501.65" angle="-90.00" type="type0" speed="16.95"/>
        <vehicle id="flow1.2" x="84.55" y="498.35" angle="90.00" type="type0" speed="8.96"/>
        <vehicle id="flow1.3" x="12.59" y="498.35" angle="90.00" type="type0" speed="1.34"/>
        <vehicle id="flow2.0" x="501.65" y="299.86" angle="180.00" type="type0" speed="9.58"/>
        <vehicle id="flow2.1" x="853.29" y="501.65" angle="-90.00" type="type0" speed="9.04"/>
        <vehicle id="flow2.2" x="920.32" y="501.65" angle="-90.00" type="type0" speed="8.53"/>
        <vehicle id="flow2.3" x="501.65" y="13.16" angle="180.00" type="type0" speed="1.83"/>
    </timestep>
    <timestep time="40.00">
        <vehicle id="flow1.0" x="501.65" y="327.97" angle="180.00" type="type0" speed="9.67"/>
        <vehicle id="flow1.1" x="728.76" y="501.65" angle="-90.00" type="type0" speed="17.57"/>
        <vehicle id="flow1.2" x="94.03" y="498.35" angle="90.00" type="type0" speed="9.48"/>
        <vehicle id="flow1.3" x="14.60" y="498.35" angle="90.00" type="type0" speed="2.01"/>
        <vehicle id="flow2.0" x="501.65" y="309.36" angle="180.00" type="type0" speed="9.51"/>
        <vehicle id="flow2.1" x="843.91" y="501.65" angle="-90.00" type="type0" speed="9.38"/>
        <vehicle id="flow2.2" x="911.07" y="501.65" angle="-90.00" type="type0" speed="9.24"/>
        <vehicle id="flow2.3" x="501.65" y="15.60" angle="180.00" type="type0" speed="2.44"/>
    </timestep>
    <timestep time="41.00">
        <vehicle id="flow1.0" x="501.65" y="337.46" angle="180.00" type="type0" speed="9.48"/>
        <vehicle id="flow1.1" x="710.44" y="501.65" angle="-90.00" type="type0" speed="18.32"/>
        <vehicle id="flow1.2" x="104.26" y="498.35" angle="90.00" type="type0" speed="10.23"/>
        <vehicle id="flow1.3" x="17.10" y="498.35" angle="90.00" type="type0" speed="2.50"/>
        <vehicle id="flow2.0" x="501.65" y="319.24" angle="180.00" type="type0" speed="9.87"/>
        <vehicle id="flow2.1" x="834.70" y="501.65" angle="-90.00" type="type0" speed="9.21"/>
        <vehicle id="flow2.2" x="901.09" y="501.65" angle="-90.00" type="type0" speed="9.98"/>
        <vehicle id="flow2.3" x="501.65" y="18.66" angle="180.00" type="type0" speed="3.06"/>
    </timestep>
    <timestep time="42.00">
        <vehicle id="flow1.0" x="501.65" y="347.17" angle="180.00" type="type0" speed="9.71"/>
        <vehicle id="flow1.1" x="691.45" y="501.65" angle="-90.00" type="type0" speed="18.99"/>
        <vehicle id="flow1.2" x="114.95" y="498.35" angle="90.00" type="type0" speed="10.69"/>
        <vehicle id="flow1.3" x="20.30" y="498.35" angle="90.00" type="type0" speed="3.20"/>
        <vehicle id="flow2.0" x="501.65" y="328.91" angle="180.00" type="type0" speed="9.67"/>
        <vehicle id="flow2.1" x="825.63" y="501.65" angle="-90.00" type="type0" speed="9.07"/>
        <vehicle id="flow2.2" x="890.39" y="501.65" angle="-90.00" type="type0" speed="10.70"/>
        <vehicle id="flow2.3" x="501.65" y="22.48" angle="180.00" type="type0" speed="3.82"/>
    </timestep>
    <timestep time="43.00">
        <vehicle id="flow1.0" x="501.65" y="356.88" angle="180.00" type="type0" speed="9.71"/>
        <vehicle id="flow1.1" x="672.02" y="501.65" angle="-90.00" type="type0" speed="19.43"/>
        <vehicle id="flow1.2" x="126.12" y="498.35" angle="90.00" type="type0" speed="11.17"/>
        <vehicle id="flow1.3" x="24.07" y="498.35" angle="90.00" type="type0" speed="3.77"/>
        <vehicle id="flow2.0" x="501.65" y="338.75" angle="180.00" type="type0" speed="9.84"/>
        <vehicle id="flow2.1" x="816.28" y="501.65" angle="-90.00" type="type0" speed="9.35"/>
        <vehicle id="flow2.2" x="879.26" y="501.65" angle="-90.00" type="type0" speed="11.13"/>
        <vehicle id="flow2.3" x="501.65" y="26.92" angle="180.00" type="type0" speed="4.44"/>
    </timestep>
    <timestep time="44.00">
        <vehicle id="flow1.0" x="501.65" y="366.46" angle="180.00" type="type0" speed="9.58"/>
        <vehicle id="flow1.1" x="652.09" y="501.65" angle="-90.00" type="type0" speed="19.93"/>
        <vehicle id="flow1.2" x="138.04" y="498.35" angle="90.00" type="type0" speed="11.92"/>
        <vehicle id="flow1.3" x="28.37" y="498.35" angle="90.00" type="type0" speed="4.30"/>
        <vehicle id="flow2.0" x="501.65" y="348.58" angle="180.00" type="type0" speed="9.83"/>
        <vehicle id="flow2.1" x="807.15" y="501.65" angle="-90.00" type="type0" speed="9.14"/>
        <vehicle id="flow2.2" x="867.35" y="501.65" angle="-90.00" type="type0" speed="11.91"/>
        <vehicle id="flow2.3" x="501.65" y="32.00" angle="180.00" type="type0" speed="5.08"/>
    </timestep>
    <timestep time="45.00">
        <vehicle id="flow1.0" x="501.65" y="376.03" angle="180.00" type="type0" speed="9.57"/>
        <vehicle id="flow1.1" x="631.68" y="501.65" angle="-90.00" type="type0" speed="20.41"/>
        <vehicle id="flow1.2" x="150.53" y="498.35" angle="90.00" type="type0" speed="12.48"/>
        <vehicle id="flow1.3" x="33.18" y="498.35" angle="90.00" type="type0" speed="4.81"/>
        <vehicle id="flow2.0" x="501.65" y="358.27" angle="180.00" type="type0" speed="9.69"/>
        <vehicle id="flow2.1" x="797.88" y="501.65" angle="-90.00" type="type0" speed="9.27"/>
        <vehicle id="flow2.2" x="854.97" y="501.65" angle="-90.00" type="type0" speed="12.38"/>
        <vehicle id="flow2.3" x="501.65" y="37.69" angle="180.00" type="type0" speed="5.69"/>
    </timestep>
    <timestep time="46.00">
        <vehicle id="flow1.0" x="501.65" y="385.67" angle="180.00" type="type0" speed="9.65"/>
        <vehicle id="flow1.1" x="610.90" y="501.65" angle="-90.00" type="type0" speed="20.79"/>
        <vehicle id="flow1.2" x="163.72" y="498.35" angle="90.00" type="type0" speed="13.19"/>
        <vehicle id="flow1.3" x="38.56" y="498.35" angle="90.00" type="type0" speed="5.38"/>
        <vehicle id="flow2.0" x="501.65" y="367.52" angle="180.00" type="type0" speed="9.25"/>
        <vehicle id="flow2.1" x="788.65" y="501.65" angle="-90.00" type="type0" speed="9.23"/>
        <vehicle id="flow2.2" x="842.61" y="501.65" angle="-90.00" type="type0" speed="12.37"/>
        <vehicle id="flow2.3" x="501.65" y="44.11" angle="180.00" type="type0" speed="6.42"/>
    </timestep>
    <timestep time="47.00">
        <vehicle id="flow1.0" x="501.65" y="395.12" angle="180.00" type="type0" speed="9.44"/>
        <vehicle id="flow1.1" x="590.20" y="501.65" angle="-90.00" type="type0" speed="20.70"/>
        <vehicle id="flow1.2" x="177.57" y="498.35" angle="90.00" type="type0" speed="13.85"/>
        <vehicle id="flow1.3" x="44.66" y="498.35" angle="90.00" type="type0" speed="6.10"/>
        <vehicle id="flow2.0" x="501.65" y="376.98" angle="180.00" type="type0" speed="9.46"/>
        <vehicle id="flow2.1" x="779.58" y="501.65" angle="-90.00" type="type0" speed="9.07"/>
        <vehicle id="flow2.2" x="830.28" y="501.65" angle="-90.00" type="type0" speed="12.32"/>
        <vehicle id="flow2.3" x="501.65" y="51.11" angle="180.00" type="type0" speed="7.00"/>
    </timestep>
    <timestep time="48.00">
        <vehicle id="flow1.0" x="501.65" y="404.80" angle="180.00" type="type0" speed="9.68"/>
        <vehicle id="flow1.1" x="569.53" y="501.65" angle="-90.00" type="type0" speed="20.67"/>
        <vehicle id="flow1.2" x="192.08" y="498.35" angle="90.00" type="type0" speed="14.51"/>
        <vehicle id="flow1.3" x="51.18" y="498.35" angle="90.00" type="type0" speed="6.53"/>
        <vehicle id="flow1.4" x="501.65" y="9.85" angle="180.00" type="type0" speed="0.00"/>
        <vehicle id="flow2.0" x="501.65" y="386.51" angle="180.00" type="type0" speed="9.53"/>
        <vehicle id="flow2.1" x="770.48" y="501.65" angle="-90.00" type="type0" speed="9.11"/>
        <vehicle id="flow2.2" x="818.18" y="501.65" angle="-90.00" type="type0" speed="12.11"/>
        <vehicle id="flow2.3" x="501.65" y="58.81" angle="180.00" type="type0" speed="7.69"/>
        <vehicle id="flow2.4" x="9.85" y="498.35" angle="90.00" type="type0" speed="0.00"/>
    </timestep>
    <timestep time="49.00">
        <vehicle id="flow1.0" x="501.65" y="414.59" angle="180.00" type="type0" speed="9.79"/>
        <vehicle id="flow1.1" x="550.07" y="501.65" angle="-90.00" type="type0" speed="19.46"/>
        <vehicle id="flow1.2" x="207.06" y="498.35" angle="90.00" type="type0" speed="14.99"/>
        <vehicle id="flow1.3" x="58.49" y="498.35" angle="90.00" type="type0" speed="7.31"/>
        <vehicle id="flow1.4" x="501.65" y="10.42" angle="180.00" type="type0" speed="0.57"/>
        <vehicle id="flow2.0" x="501.65" y="396.41" angle="180.00" type="type0" speed="9.90"/>
        <vehicle id="flow2.1" x="761.12" y="501.65" angle="-90.00" type="type0" speed="9.36"/>
        <vehicle id="flow2.2" x="806.13" y="501.65" angle="-90.00" type="type0" speed="12.04"/>
        <vehicle id="flow2.3" x="501.65" y="67.28" angle="180.00" type="type0" speed="8.47"/>
        <vehicle id="flow2.4" x="10.54" y="498.35" angle="90.00" type="type0" speed="0.69"/>
    </timestep>
    <timestep time="50.00">
        <vehicle id="flow1.0" x="501.65" y="424.21" angle="180.00" type="type0" speed="9.61"/>
        <vehicle id="flow1.1" x="534.62" y="501.65" angle="-90.00" type="type0" speed="15.45"/>
        <vehicle id="flow1.2" x="222.50" y="498.35" angle="90.00" type="type0" speed="15.43"/>
        <vehicle id="flow1.3" x="66.47" y="498.35" angle="90.00" type="type0" speed="7.97"/>
        <vehicle id="flow1.4" x="501.65" y="11.57" angle="180.00" type="type0" speed="1.15"/>
        <vehicle id="flow2.0" x="501.65" y="406.14" angle="180.00" type="type0" speed="9.74"/>
        <vehicle id="flow2.1" x="752.00" y="501.65" angle="-90.00" type="type0" speed="9.12"/>
        <vehicle id="flow2.2" x="794.01" y="501.65" angle="-90.00" type="type0" speed="12.13"/>
        <vehicle id="flow2.3" x="501.65" y="76.32" angle="180.00" type="type0" speed="9.04"/>
        <vehicle id="flow2.4" x="11.87" y="498.35" angle="90.00" type="type0" speed="1.33"/>
    </timestep>
    <timestep time="51.00">
        <vehicle id="flow1.0" x="501.65" y="433.88" angle="180.00" type="type0" speed="9.68"/>
        <vehicle id="flow1.1" x="523.19" y="501.65" angle="-90.00" type="type0" speed="11.43"/>
        <vehicle id="flow1.2" x="238.71" y="498.35" angle="90.00" type="type0" speed="16.21"/>
        <vehicle id="flow1.3" x="74.98" y="498.35" angle="90.00" type="type0" speed="8.51"/>
        <vehicle id="flow1.4" x="501.65" y="13.41" angle="180.00" type="type0" speed="1.83"/>
        <vehicle id="flow2.0" x="501.65" y="415.84" angle="180.00" type="type0" speed="9.70"/>
        <vehicle id="flow2.1" x="742.66" y="501.65" angle="-90.00" type="type0" speed="9.34"/>
        <vehicle id="flow2.2" x="781.86" y="501.65" angle="-90.00" type="type0" speed="12.15"/>
        <vehicle id="flow2.3" x="501.65" y="86.10" angle="180.00" type="type0" speed="9.78"/>
        <vehicle id="flow2.4" x="13.64" y="498.35" angle="90.00" type="type0" speed="1.77"/>
    </timestep>
    <timestep time="52.00">
        <vehicle id="flow1.0" x="501.65" y="443.55" angle="180.00" type="type0" speed="9.66"/>
        <vehicle id="flow1.1" x="515.19" y="501.65" angle="-90.00" type="type0" speed="8.00"/>
        <vehicle id="flow1.2" x="255.41" y="498.35" angle="90.00" type="type0" speed="16.71"/>
        <vehicle id="flow1.3" x="84.28" y="498.35" angle="90.00" type="type0" speed="9.30"/>
        <vehicle id="flow1.4" x="501.65" y="15.67" angle="180.00" type="type0" speed="2.27"/>
        <vehicle id="flow2.0" x="501.65" y="425.65" angle="180.00" type="type0" speed="9.81"/>
        <vehicle id="flow2.1" x="733.53" y="501.65" angle="-90.00" type="type0" speed="9.13"/>
        <vehicle id="flow2.2" x="769.81" y="501.65" angle="-90.00" type="type0" speed="12.04"/>
        <vehicle id="flow2.3" x="501.65" y="96.38" angle="180.00" type="type0" speed="10.28"/>
        <vehicle id="flow2.4" x="15.90" y="498.35" angle="90.00" type="type0" speed="2.26"/>
    </timestep>
    <timestep time="53.00">
        <vehicle id="flow1.0" x="501.65" y="453.14" angle="180.00" type="type0" speed="9.59"/>
        <vehicle id="flow1.1" x="510.48" y="501.65" angle="-90.00" type="type0" speed="4.71"/>
        <vehicle id="flow1.2" x="272.15" y="498.35" angle="90.00" type="type0" speed="16.73"/>
        <vehicle id="flow1.3" x="94.02" y="498.35" angle="90.00" type="type0" speed="9.74"/>